Program Version,EnergyPlus 3.1.0.027, 8/13/2009 10:06 AM
1,5,Environment Title[],Latitude[degrees],Longitude[degrees],Time Zone[],Elevation[m]
2,6,Day of Simulation[],Month[],Day of Month[],DST Indicator[1=yes 0=no],Hour[],StartMinute[],EndMinute[],DayType
3,3,Cumulative Day of Simulation[],Month[],Day of Month[],DST Indicator[1=yes 0=no],DayType  ! When Daily Meters Requested
4,2,Cumulative Days of Simulation[],Month[]  ! When Monthly Meters Requested
5,1,Cumulative Days of Simulation[] ! When Run Period Meters Requested
347,1,Electricity:Facility [J] !Hourly [Value,Min,Minute,Max,Minute]
357,1,Electricity:Building [J] !Hourly [Value,Min,Minute,Max,Minute]
7382,1,ElectricityNet:Facility [J] !Hourly [Value,Min,Minute,Max,Minute]
7827,1,Electricity:HVAC [J] !Hourly [Value,Min,Minute,Max,Minute]
7898,1,Gas:Facility [J] !Hourly [Value,Min,Minute,Max,Minute]
377,1,InteriorLights:Electricity [J] !Hourly [Value,Min,Minute,Max,Minute]
897,1,InteriorEquipment:Electricity [J] !Hourly [Value,Min,Minute,Max,Minute]
7837,1,Fans:Electricity [J] !Hourly [Value,Min,Minute,Max,Minute]
7965,1,Pumps:Electricity [J] !Hourly [Value,Min,Minute,Max,Minute]
7943,1,Heating:Electricity [J] !Hourly [Value,Min,Minute,Max,Minute]
7261,1,Cooling:Electricity [J] !Hourly [Value,Min,Minute,Max,Minute]
7918,1,Heating:Gas [J] !Hourly [Value,Min,Minute,Max,Minute]
349,1,Electricity:Facility [J] !Monthly [Value,Min,Day,Hour,Minute,Max,Day,Hour,Minute]
7900,1,Gas:Facility [J] !Monthly [Value,Min,Day,Hour,Minute,Max,Day,Hour,Minute]
10797,1,CO2:Facility [kg] !Monthly [Value,Min,Day,Hour,Minute,Max,Day,Hour,Minute]
10818,1,CO:Facility [kg] !Monthly [Value,Min,Day,Hour,Minute,Max,Day,Hour,Minute]
10839,1,CH4:Facility [kg] !Monthly [Value,Min,Day,Hour,Minute,Max,Day,Hour,Minute]
10860,1,NOx:Facility [kg] !Monthly [Value,Min,Day,Hour,Minute,Max,Day,Hour,Minute]
10881,1,N2O:Facility [kg] !Monthly [Value,Min,Day,Hour,Minute,Max,Day,Hour,Minute]
10902,1,SO2:Facility [kg] !Monthly [Value,Min,Day,Hour,Minute,Max,Day,Hour,Minute]
10923,1,PM:Facility [kg] !Monthly [Value,Min,Day,Hour,Minute,Max,Day,Hour,Minute]
10944,1,PM10:Facility [kg] !Monthly [Value,Min,Day,Hour,Minute,Max,Day,Hour,Minute]
10965,1,PM2.5:Facility [kg] !Monthly [Value,Min,Day,Hour,Minute,Max,Day,Hour,Minute]
10986,1,NH3:Facility [kg] !Monthly [Value,Min,Day,Hour,Minute,Max,Day,Hour,Minute]
11007,1,NMVOC:Facility [kg] !Monthly [Value,Min,Day,Hour,Minute,Max,Day,Hour,Minute]
11028,1,Hg:Facility [kg] !Monthly [Value,Min,Day,Hour,Minute,Max,Day,Hour,Minute]
11049,1,Pb:Facility [kg] !Monthly [Value,Min,Day,Hour,Minute,Max,Day,Hour,Minute]
11070,1,WaterEnvironmentalFactors:Facility [L] !Monthly [Value,Min,Day,Hour,Minute,Max,Day,Hour,Minute]
11091,1,Nuclear High:Facility [kg] !Monthly [Value,Min,Day,Hour,Minute,Max,Day,Hour,Minute]
11112,1,Nuclear Low:Facility [m3] !Monthly [Value,Min,Day,Hour,Minute,Max,Day,Hour,Minute]
11507,1,Carbon Equivalent:Facility [kg] !Monthly [Value,Min,Day,Hour,Minute,Max,Day,Hour,Minute]
End of Data Dictionary
1,DULUTH MN USA TMY2-14913 WMO#=727450,  46.83, -92.18,  -6.00, 432.00
2,1, 3,13, 1, 1, 0.00,60.00,Monday         
347,111384680.993528,26547250.7499602,31:45,28279863.0825498,01:15
357,91798000.8398408,22949500.2099602,01:15,22949500.2099602,01:15
377,5398036.69921902,1349509.17480476,01:15,1349509.17480476,01:15
897,86399964.1406218,21599991.0351554,01:15,21599991.0351554,01:15
7261,0.0,0.0,01:15,0.0,01:15
7382,111384680.993528,26547250.7499602,31:45,28279863.0825498,01:15
7827,4920199.48168629,0.0,31:45,1640066.49389543,01:15
7837,4920199.48168629,0.0,31:45,1640066.49389543,01:15
7898,79576634.0575541,0.0,31:45,26844201.4852699,01:15
7918,79576634.0575541,0.0,31:45,26844201.4852699,01:15
7943,0.0,0.0,01:15,0.0,01:15
7965,275478.512000944,0.0,31:45,92545.8386941305,01:15
2,1, 3,13, 1, 2, 0.00,60.00,Monday         
347,111386094.96269,26547250.7499602,16:30,28280328.5883317,46:60
357,91798000.8398408,22949500.2099602,01:15,22949500.2099602,01:15
377,5398036.69921902,1349509.17480476,01:15,1349509.17480476,01:15
897,86399964.1406218,21599991.0351554,01:15,21599991.0351554,01:15
7261,0.0,0.0,01:15,0.0,01:15
7382,111386094.96269,26547250.7499602,16:30,28280328.5883317,46:60
7827,4920199.48168629,0.0,16:30,1640066.49389543,01:15
7837,4920199.48168629,0.0,16:30,1640066.49389543,01:15
7898,80194665.4662597,0.0,16:30,27040079.7457372,46:60
7918,80194665.4662597,0.0,16:30,27040079.7457372,46:60
7943,0.0,0.0,01:15,0.0,01:15
7965,276892.481162986,0.0,16:30,93011.3444760311,46:60
2,1, 3,13, 1, 3, 0.00,60.00,Monday         
347,109660380.52023,26547250.7499602,01:15,28283433.427256,31:45
357,91798000.8398408,22949500.2099602,01:15,22949500.2099602,01:15
377,5398036.69921902,1349509.17480476,01:15,1349509.17480476,01:15
897,86399964.1406218,21599991.0351554,01:15,21599991.0351554,01:15
7261,0.0,0.0,01:15,0.0,01:15
7382,109660380.52023,26547250.7499602,01:15,28283433.427256,31:45
7827,3280132.98779086,0.0,01:15,1640066.49389543,16:30
7837,3280132.98779086,0.0,01:15,1640066.49389543,16:30
7898,56095613.1160437,0.0,01:15,28225531.3765846,31:45
7918,56095613.1160437,0.0,01:15,28225531.3765846,31:45
7943,0.0,0.0,01:15,0.0,01:15
7965,191244.532598419,0.0,01:15,96116.1834004043,31:45
2,1, 3,13, 1, 4, 0.00,60.00,Monday         
347,111407193.98325,26547250.7499602,31:45,28288189.0754109,46:60
357,91798000.8398408,22949500.2099602,01:15,22949500.2099602,01:15
377,5398036.69921902,1349509.17480476,01:15,1349509.17480476,01:15
897,86399964.1406218,21599991.0351554,01:15,21599991.0351554,01:15
7261,0.0,0.0,01:15,0.0,01:15
7382,111407193.98325,26547250.7499602,31:45,28288189.0754109,46:60
7827,4920199.48168629,0.0,31:45,1640066.49389543,01:15
7837,4920199.48168629,0.0,31:45,1640066.49389543,01:15
7898,88028607.8334528,0.0,31:45,29899785.4525335,46:60
7918,88028607.8334528,0.0,31:45,29899785.4525335,46:60
7943,0.0,0.0,01:15,0.0,01:15
7965,297991.501722649,0.0,31:45,100871.831555224,46:60
2,1, 3,13, 1, 5, 0.00,60.00,Monday         
347,117155903.635399,27896759.924765,16:30,29753706.9687807,31:45
357,97196037.5390598,24299009.384765,01:15,24299009.384765,01:15
377,10796073.398438,2699018.34960951,01:15,2699018.34960951,01:15
897,86399964.1406218,21599991.0351554,01:15,21599991.0351554,01:15
7261,0.0,0.0,01:15,0.0,01:15
7382,117155903.635399,27896759.9247649,16:30,29753706.9687807,31:45
7827,4920199.48168629,0.0,16:30,1640066.49389543,01:15
7837,4920199.48168629,0.0,16:30,1640066.49389543,01:15
7898,140794188.303302,0.0,16:30,47114725.2763869,31:45
7918,140794188.303302,0.0,16:30,47114725.2763869,31:45
7943,0.0,0.0,01:15,0.0,01:15
7965,648664.454653248,0.0,16:30,216880.550120341,31:45
2,1, 3,13, 1, 6, 0.00,60.00,Monday         
347,119011842.809669,29752703.0123676,16:30,29753386.5322757,46:60
357,97196037.5390598,24299009.384765,01:15,24299009.384765,01:15
377,10796073.398438,2699018.34960951,01:15,2699018.34960951,01:15
897,86399964.1406218,21599991.0351554,01:15,21599991.0351554,01:15
7261,0.0,0.0,01:15,0.0,01:15
7382,119011842.809669,29752703.0123676,16:30,29753386.5322757,46:60
7827,6560265.97558172,1640066.49389543,01:15,1640066.49389543,01:15
7837,6560265.97558172,1640066.49389543,01:15,1640066.49389543,01:15
7898,187642311.543298,46838207.6939692,16:30,47029292.7802707,46:60
7918,187642311.543298,46838207.6939692,16:30,47029292.7802707,46:60
7943,0.0,0.0,01:15,0.0,01:15
7965,864537.135027345,215876.593707183,16:30,216560.113615295,46:60
2,1, 3,13, 1, 7, 0.00,60.00,Monday         
347,133415410.021094,31555196.6065593,31:45,35152484.8382856,16:30
357,118788184.335936,29697046.083984,01:15,29697046.083984,01:15
377,32388220.1953141,8097055.04882853,01:15,8097055.04882853,01:15
897,86399964.1406218,21599991.0351554,01:15,21599991.0351554,01:15
7261,0.0,0.0,01:15,0.0,01:15
7382,133415410.021094,31555196.6065593,31:45,35152484.8382856,16:30
7827,6560265.97558172,1640066.49389543,01:15,1640066.49389543,01:15
7837,6560265.97558172,1640066.49389543,01:15,1640066.49389543,01:15
7898,189500549.298517,47200400.0243179,01:15,47553391.2744889,46:60
7918,189500549.298517,47200400.0243179,01:15,47553391.2744889,46:60
7943,0.0,0.0,01:15,0.0,01:15
7965,871458.629576054,217192.184430027,01:15,218560.69605992,46:60
2,1, 3,13, 1, 8, 0.00,60.00,Monday         
347,298928718.379426,74717287.4185051,46:60,74744490.6702211,01:15
357,291564579.902341,72891144.9755853,01:15,72891144.9755853,01:15
377,97164660.5859424,24291165.1464856,01:15,24291165.1464856,01:15
897,194399919.316399,48599979.8290997,01:15,48599979.8290997,01:15
7261,0.0,0.0,01:15,0.0,01:15
7382,298928718.379426,74717287.4185051,46:60,74744490.6702211,01:15
7827,6560265.97558172,1640066.49389543,31:45,1640066.49389543,01:15
7837,6560265.97558172,1640066.49389543,31:45,1640066.49389543,01:15
7898,182668900.558604,44511138.9758371,46:60,46934340.7397961,01:15
7918,182668900.558604,44511138.9758371,46:60,46934340.7397961,01:15
7943,0.0,0.0,01:15,0.0,01:15
7965,803872.501503441,186075.949024361,46:60,213279.200740333,01:15
2,1, 3,13, 1, 9, 0.00,60.00,Monday         
347,298742180.96527,74682047.3108599,46:60,74690299.5173818,01:15
357,291564579.902341,72891144.9755853,01:15,72891144.9755853,01:15
377,97164660.5859424,24291165.1464856,01:15,24291165.1464856,01:15
897,194399919.316399,48599979.8290997,01:15,48599979.8290997,01:15
7261,0.0,0.0,01:15,0.0,01:15
7382,298742180.96527,74682047.3108599,46:60,74690299.5173818,01:15
7827,6560265.97558172,1640066.49389543,01:15,1640066.49389543,01:15
7837,6560265.97558172,1640066.49389543,01:15,1640066.49389543,01:15
7898,161633190.376467,38549513.7850967,46:60,42455802.4876752,01:15
7918,161633190.376467,38549513.7850967,46:60,42455802.4876752,01:15
7943,0.0,0.0,01:15,0.0,01:15
7965,617335.087346606,150835.841379194,46:60,159088.047901069,01:15
2,1, 3,13, 1,10, 0.00,60.00,Monday         
347,298713212.074452,74675824.5982446,46:60,74680272.9705867,01:15
357,291564579.902341,72891144.9755853,01:15,72891144.9755853,01:15
377,97164660.5859424,24291165.1464856,01:15,24291165.1464856,01:15
897,194399919.316399,48599979.8290997,01:15,48599979.8290997,01:15
7261,0.0,0.0,01:15,0.0,01:15
7382,298713212.074452,74675824.5982446,46:60,74680272.9705867,01:15
7827,6560265.97558172,1640066.49389543,01:15,1640066.49389543,01:15
7837,6560265.97558172,1640066.49389543,01:15,1640066.49389543,01:15
7898,145877147.041578,35489848.3093672,46:60,37411422.7563036,01:15
7918,145877147.041578,35489848.3093672,46:60,37411422.7563036,01:15
7943,0.0,0.0,01:15,0.0,01:15
7965,588366.196529392,144613.128763855,46:60,149061.501105976,01:15
2,1, 3,13, 1,11, 0.00,60.00,Monday         
347,298675227.846586,74666686.288525,46:60,74671455.7269315,01:15
357,291564579.902341,72891144.9755853,01:15,72891144.9755853,01:15
377,97164660.5859424,24291165.1464856,01:15,24291165.1464856,01:15
897,194399919.316399,48599979.8290997,01:15,48599979.8290997,01:15
7261,0.0,0.0,01:15,0.0,01:15
7382,298675227.846586,74666686.288525,46:60,74671455.7269315,01:15
7827,6560265.97558172,1640066.49389543,01:15,1640066.49389543,01:15
7837,6560265.97558172,1640066.49389543,01:15,1640066.49389543,01:15
7898,133498035.184951,32318157.8316388,46:60,34575031.8041895,01:15
7918,133498035.184951,32318157.8316388,46:60,34575031.8041895,01:15
7943,0.0,0.0,01:15,0.0,01:15
7965,550381.968662654,135474.819044249,46:60,140244.257450761,01:15
2,1, 3,13, 1,12, 0.00,60.00,Monday         
347,277030196.664561,69244568.6070345,46:60,69266350.7804717,01:15
357,269964588.867186,67491147.2167965,01:15,67491147.2167965,01:15
377,97164660.5859424,24291165.1464856,01:15,24291165.1464856,01:15
897,172799928.281244,43199982.0703109,01:15,43199982.0703109,01:15
7261,0.0,0.0,01:15,0.0,01:15
7382,277030196.664561,69244568.6070345,46:60,69266350.7804717,01:15
7827,6560265.97558172,1640066.49389543,01:15,1640066.49389543,01:15
7837,6560265.97558172,1640066.49389543,01:15,1640066.49389543,01:15
7898,123293727.204806,29160552.9416263,46:60,32170328.4918172,01:15
7918,123293727.204806,29160552.9416263,46:60,32170328.4918172,01:15
7943,0.0,0.0,01:15,0.0,01:15
7965,505341.821793794,113354.896342541,46:60,135137.06977982,01:15
2,1, 3,13, 1,13, 0.00,60.00,Monday         
347,298501009.828609,74620992.4076997,46:60,74632460.8334352,01:15
357,291564579.902341,72891144.9755853,01:15,72891144.9755853,01:15
377,97164660.5859424,24291165.1464856,01:15,24291165.1464856,01:15
897,194399919.316399,48599979.8290997,01:15,48599979.8290997,01:15
7261,0.0,0.0,01:15,0.0,01:15
7382,298501009.828609,74620992.4076997,46:60,74632460.8334352,01:15
7827,6560265.97558172,1640066.49389543,01:15,1640066.49389543,01:15
7837,6560265.97558172,1640066.49389543,01:15,1640066.49389543,01:15
7898,98005181.5137218,22467059.3003955,46:60,26826794.9222084,01:15
7918,98005181.5137218,22467059.3003955,46:60,26826794.9222084,01:15
7943,0.0,0.0,01:15,0.0,01:15
7965,376163.950685614,89780.9382189732,46:60,101249.363954484,01:15
2,1, 3,13, 1,14, 0.00,60.00,Monday         
347,298451156.606894,74611295.1645601,46:60,74614740.1181139,01:15
357,291564579.902341,72891144.9755853,01:15,72891144.9755853,01:15
377,97164660.5859424,24291165.1464856,01:15,24291165.1464856,01:15
897,194399919.316399,48599979.8290997,01:15,48599979.8290997,01:15
7261,0.0,0.0,01:15,0.0,01:15
7382,298451156.606894,74611295.1645601,46:60,74614740.118114,01:15
7827,6560265.97558172,1640066.49389543,01:15,1640066.49389543,01:15
7837,6560265.97558172,1640066.49389543,01:15,1640066.49389543,01:15
7898,79922766.0801031,18910415.9240108,46:60,21264210.3596327,01:15
7918,79922766.0801031,18910415.9240108,46:60,21264210.3596327,01:15
7943,0.0,0.0,01:15,0.0,01:15
7965,326310.728970516,80083.695079322,46:60,83528.6486332036,01:15
2,1, 3,13, 1,15, 0.00,60.00,Monday         
347,298436961.098917,74608112.8128785,46:60,74610382.2342325,01:15
357,291564579.902341,72891144.9755853,01:15,72891144.9755853,01:15
377,97164660.5859424,24291165.1464856,01:15,24291165.1464856,01:15
897,194399919.316399,48599979.8290997,01:15,48599979.8290997,01:15
7261,0.0,0.0,01:15,0.0,01:15
7382,298436961.098917,74608112.8128785,46:60,74610382.2342325,01:15
7827,6560265.97558172,1640066.49389543,01:15,1640066.49389543,01:15
7837,6560265.97558172,1640066.49389543,01:15,1640066.49389543,01:15
7898,68200334.3638697,15976101.3091324,46:60,18119210.1174323,01:15
7918,68200334.3638697,15976101.3091324,46:60,18119210.1174323,01:15
7943,0.0,0.0,01:15,0.0,01:15
7965,312115.220993563,76901.3433977975,46:60,79170.7647517085,01:15
2,1, 3,13, 1,16, 0.00,60.00,Monday         
347,298431597.328869,74607859.9488229,46:60,74607963.5328005,01:15
357,291564579.902341,72891144.9755853,01:15,72891144.9755853,01:15
377,97164660.5859424,24291165.1464856,01:15,24291165.1464856,01:15
897,194399919.316399,48599979.8290997,01:15,48599979.8290997,01:15
7261,0.0,0.0,01:15,0.0,01:15
7382,298431597.328869,74607859.9488229,46:60,74607963.5328005,01:15
7827,6560265.97558172,1640066.49389543,01:15,1640066.49389543,01:15
7837,6560265.97558172,1640066.49389543,01:15,1640066.49389543,01:15
7898,63069132.995285,15727201.4557034,46:60,15831703.6914565,01:15
7918,63069132.995285,15727201.4557034,46:60,15831703.6914565,01:15
7943,0.0,0.0,01:15,0.0,01:15
7965,306751.450946231,76648.479342164,46:60,76752.0633197677,01:15
2,1, 3,13, 1,17, 0.00,60.00,Monday         
347,168864532.258472,42214946.0172392,01:15,42217263.1266962,46:60
357,161980322.167967,40495080.5419919,01:15,40495080.5419919,01:15
377,53980366.9921902,13495091.7480475,01:15,13495091.7480475,01:15
897,107999955.175777,26999988.7939443,01:15,26999988.7939443,01:15
7261,0.0,0.0,01:15,0.0,01:15
7382,168864532.258472,42214946.0172392,01:15,42217263.1266962,46:60
7827,6560265.97558172,1640066.49389543,01:15,1640066.49389543,01:15
7837,6560265.97558172,1640066.49389543,01:15,1640066.49389543,01:15
7898,78077235.1813268,18545187.5108869,01:15,20249156.0261322,46:60
7918,78077235.1813268,18545187.5108869,01:15,20249156.0261322,46:60
7943,0.0,0.0,01:15,0.0,01:15
7965,323944.114922508,79798.98135192,01:15,82116.0908088862,46:60
2,1, 3,13, 1,18, 0.00,60.00,Monday         
347,125744129.562499,31428309.8574852,01:15,31440967.1325855,46:60
357,118788184.335936,29697046.083984,01:15,29697046.083984,01:15
377,32388220.1953141,8097055.04882853,01:15,8097055.04882853,01:15
897,86399964.1406218,21599991.0351554,01:15,21599991.0351554,01:15
7261,0.0,0.0,01:15,0.0,01:15
7382,125744129.562499,31428309.8574852,01:15,31440967.1325855,46:60
7827,6560265.97558172,1640066.49389543,01:15,1640066.49389543,01:15
7837,6560265.97558172,1640066.49389543,01:15,1640066.49389543,01:15
7898,92967391.8772638,21964644.6871026,01:15,24316432.5736421,46:60
7918,92967391.8772638,21964644.6871026,01:15,24316432.5736421,46:60
7943,0.0,0.0,01:15,0.0,01:15
7965,395679.250981772,91197.2796057665,01:15,103854.554706106,46:60
2,1, 3,13, 1,19, 0.00,60.00,Monday         
347,140069414.597546,35016427.6126621,01:15,35018173.7290706,46:60
357,118788184.335936,29697046.083984,01:15,29697046.083984,01:15
377,32388220.1953141,8097055.04882853,01:15,8097055.04882853,01:15
897,86399964.1406218,21599991.0351554,01:15,21599991.0351554,01:15
7261,0.0,0.0,01:15,0.0,01:15
7382,140069414.597546,35016427.6126621,01:15,35018173.7290706,46:60
7827,6560265.97558172,1640066.49389543,31:45,1640066.49389543,01:15
7837,6560265.97558172,1640066.49389543,31:45,1640066.49389543,01:15
7898,83906184.6562428,20248585.016286,01:15,21606382.8781617,46:60
7918,83906184.6562428,20248585.016286,01:15,21606382.8781617,46:60
7943,0.0,0.0,01:15,0.0,01:15
7965,329962.126028513,81564.4947826558,01:15,83310.6111912038,46:60
2,1, 3,13, 1,20, 0.00,60.00,Monday         
347,129284228.586269,32319932.3797607,01:15,32322181.9876949,46:60
357,107992110.937498,26998027.7343745,01:15,26998027.7343745,01:15
377,21592146.7968761,5398036.69921902,01:15,5398036.69921902,01:15
897,86399964.1406218,21599991.0351554,01:15,21599991.0351554,01:15
7261,0.0,0.0,01:15,0.0,01:15
7382,129284228.586269,32319932.3797607,01:15,32322181.9876949,46:60
7827,6560265.97558172,1640066.49389543,01:15,1640066.49389543,01:15
7837,6560265.97558172,1640066.49389543,01:15,1640066.49389543,01:15
7898,91683089.9473967,22167664.9000729,01:15,23651477.1079529,46:60
7918,91683089.9473967,22167664.9000729,01:15,23651477.1079529,46:60
7943,0.0,0.0,01:15,0.0,01:15
7965,340849.513189672,84087.611490818,01:15,86337.2194250401,46:60
2,1, 3,13, 1,21, 0.00,60.00,Monday         
347,129290913.715033,32322405.2909643,01:15,32323065.8491566,46:60
357,107992110.937498,26998027.7343745,01:15,26998027.7343745,01:15
377,21592146.7968761,5398036.69921902,01:15,5398036.69921902,01:15
897,86399964.1406218,21599991.0351554,01:15,21599991.0351554,01:15
7261,0.0,0.0,01:15,0.0,01:15
7382,129290913.715033,32322405.2909643,01:15,32323065.8491566,46:60
7827,6560265.97558172,1640066.49389543,01:15,1640066.49389543,01:15
7837,6560265.97558172,1640066.49389543,01:15,1640066.49389543,01:15
7898,95925698.5733803,23788236.5082791,01:15,24181425.6967536,46:60
7918,95925698.5733803,23788236.5082791,01:15,24181425.6967536,46:60
7943,0.0,0.0,01:15,0.0,01:15
7965,347534.641953914,86560.5226944225,01:15,87221.0808866649,46:60
2,1, 3,13, 1,22, 0.00,60.00,Monday         
347,116773353.679259,27896759.924765,31:45,29626540.9918317,46:60
357,97196037.5390598,24299009.384765,01:15,24299009.384765,01:15
377,10796073.398438,2699018.34960951,01:15,2699018.34960951,01:15
897,86399964.1406218,21599991.0351554,01:15,21599991.0351554,01:15
7261,0.0,0.0,01:15,0.0,01:15
7382,116773353.679259,27896759.9247649,31:45,29626540.9918317,46:60
7827,4920199.48168629,0.0,31:45,1640066.49389543,01:15
7837,4920199.48168629,0.0,31:45,1640066.49389543,01:15
7898,74999783.4926584,0.0,31:45,25532492.1733373,46:60
7918,74999783.4926584,0.0,31:45,25532492.1733373,46:60
7943,0.0,0.0,01:15,0.0,01:15
7965,266114.498513033,0.0,31:45,89714.5731713062,46:60
2,1, 3,13, 1,23, 0.00,60.00,Monday         
347,111388299.470057,26547250.7499602,16:30,28284118.2603093,31:45
357,91798000.8398408,22949500.2099602,01:15,22949500.2099602,01:15
377,5398036.69921902,1349509.17480476,01:15,1349509.17480476,01:15
897,86399964.1406218,21599991.0351554,01:15,21599991.0351554,01:15
7261,0.0,0.0,01:15,0.0,01:15
7382,111388299.470057,26547250.7499602,16:30,28284118.2603093,31:45
7827,4920199.48168629,0.0,16:30,1640066.49389543,46:60
7837,4920199.48168629,0.0,16:30,1640066.49389543,46:60
7898,80422547.7158145,0.0,16:30,27994950.293696,31:45
7918,80422547.7158145,0.0,16:30,27994950.293696,31:45
7943,0.0,0.0,01:15,0.0,01:15
7965,279096.988530113,0.0,16:30,96801.0164536991,31:45
2,1, 3,13, 1,24, 0.00,60.00,Monday         
347,109654692.061958,26547250.7499602,01:15,28280200.9767634,31:45
357,91798000.8398408,22949500.2099602,01:15,22949500.2099602,01:15
377,5398036.69921902,1349509.17480476,01:15,1349509.17480476,01:15
897,86399964.1406218,21599991.0351554,01:15,21599991.0351554,01:15
7261,0.0,0.0,01:15,0.0,01:15
7382,109654692.061958,26547250.7499602,01:15,28280200.9767634,31:45
7827,3280132.98779086,0.0,01:15,1640066.49389543,16:30
7837,3280132.98779086,0.0,01:15,1640066.49389543,16:30
7898,53884771.4084602,0.0,01:15,26986780.9553473,31:45
7918,53884771.4084602,0.0,01:15,26986780.9553473,31:45
7943,0.0,0.0,01:15,0.0,01:15
7965,185556.074326115,0.0,01:15,92883.7329077283,31:45
2,2, 3,14, 1, 1, 0.00,60.00,Tuesday        
347,111402629.974075,26547250.7499602,31:45,28287972.3820591,01:15
357,91798000.8398408,22949500.2099602,01:15,22949500.2099602,01:15
377,5398036.69921902,1349509.17480476,01:15,1349509.17480476,01:15
897,86399964.1406218,21599991.0351554,01:15,21599991.0351554,01:15
7261,0.0,0.0,01:15,0.0,01:15
7382,111402629.974075,26547250.7499602,31:45,28287972.3820591,01:15
7827,4920199.48168629,0.0,31:45,1640066.49389543,16:30
7837,4920199.48168629,0.0,31:45,1640066.49389543,16:30
7898,85767628.0940812,0.0,31:45,29157384.8791945,01:15
7918,85767628.0940812,0.0,31:45,29157384.8791945,01:15
7943,0.0,0.0,01:15,0.0,01:15
7965,293427.492547659,0.0,31:45,100655.138203441,01:15
2,2, 3,14, 1, 2, 0.00,60.00,Tuesday        
347,111418602.330675,26547250.7499602,16:30,28297287.2337207,31:45
357,91798000.8398408,22949500.2099602,01:15,22949500.2099602,01:15
377,5398036.69921902,1349509.17480476,01:15,1349509.17480476,01:15
897,86399964.1406218,21599991.0351554,01:15,21599991.0351554,01:15
7261,0.0,0.0,01:15,0.0,01:15
7382,111418602.330675,26547250.7499602,16:30,28297287.2337207,31:45
7827,4920199.48168629,0.0,16:30,1640066.49389543,46:60
7837,4920199.48168629,0.0,16:30,1640066.49389543,46:60
7898,89944895.9106422,0.0,16:30,31219979.7640546,31:45
7918,89944895.9106422,0.0,16:30,31219979.7640546,31:45
7943,0.0,0.0,01:15,0.0,01:15
7965,309399.84914801,0.0,16:30,109969.989865098,31:45
2,2, 3,14, 1, 3, 0.00,60.00,Tuesday        
347,109683863.867826,26547250.7499602,01:15,28296027.7245711,31:45
357,91798000.8398408,22949500.2099602,01:15,22949500.2099602,01:15
377,5398036.69921902,1349509.17480476,01:15,1349509.17480476,01:15
897,86399964.1406218,21599991.0351554,01:15,21599991.0351554,01:15
7261,0.0,0.0,01:15,0.0,01:15
7382,109683863.867826,26547250.7499602,01:15,28296027.7245711,31:45
7827,3280132.98779086,0.0,01:15,1640066.49389543,16:30
7837,3280132.98779086,0.0,01:15,1640066.49389543,16:30
7898,62611739.8125049,0.0,01:15,31652759.1750166,31:45
7918,62611739.8125049,0.0,01:15,31652759.1750166,31:45
7943,0.0,0.0,01:15,0.0,01:15
7965,214727.880194808,0.0,01:15,108710.480715474,31:45
2,2, 3,14, 1, 4, 0.00,60.00,Tuesday        
347,111448668.76239,26547250.7499602,31:45,28302410.8214838,46:60
357,91798000.8398408,22949500.2099602,01:15,22949500.2099602,01:15
377,5398036.69921902,1349509.17480476,01:15,1349509.17480476,01:15
897,86399964.1406218,21599991.0351554,01:15,21599991.0351554,01:15
7261,0.0,0.0,01:15,0.0,01:15
7382,111448668.76239,26547250.7499602,31:45,28302410.8214838,46:60
7827,4920199.48168629,0.0,31:45,1640066.49389543,01:15
7837,4920199.48168629,0.0,31:45,1640066.49389543,01:15
7898,98625108.1013752,0.0,31:45,33388477.2616136,46:60
7918,98625108.1013752,0.0,31:45,33388477.2616136,46:60
7943,0.0,0.0,01:15,0.0,01:15
7965,339466.280862853,0.0,31:45,115093.577628208,46:60
2,2, 3,14, 1, 5, 0.00,60.00,Tuesday        
347,117210344.574673,27896759.924765,16:30,29775433.9701215,46:60
357,97196037.5390598,24299009.384765,01:15,24299009.384765,01:15
377,10796073.398438,2699018.34960951,01:15,2699018.34960951,01:15
897,86399964.1406218,21599991.0351554,01:15,21599991.0351554,01:15
7261,0.0,0.0,01:15,0.0,01:15
7382,117210344.574673,27896759.9247649,16:30,29775433.9701215,46:60
7827,4920199.48168629,0.0,16:30,1640066.49389543,01:15
7837,4920199.48168629,0.0,16:30,1640066.49389543,01:15
7898,151017971.788712,0.0,16:30,50899469.9243094,46:60
7918,151017971.788712,0.0,16:30,50899469.9243094,46:60
7943,0.0,0.0,01:15,0.0,01:15
7965,703105.393926852,0.0,16:30,238607.551461151,46:60
2,2, 3,14, 1, 6, 0.00,60.00,Tuesday        
347,119105817.003165,29775640.7649707,16:30,29777965.083966,46:60
357,97196037.5390598,24299009.384765,01:15,24299009.384765,01:15
377,10796073.398438,2699018.34960951,01:15,2699018.34960951,01:15
897,86399964.1406218,21599991.0351554,01:15,21599991.0351554,01:15
7261,0.0,0.0,01:15,0.0,01:15
7382,119105817.003165,29775640.7649707,16:30,29777965.083966,46:60
7827,6560265.97558172,1640066.49389543,01:15,1640066.49389543,01:15
7837,6560265.97558172,1640066.49389543,01:15,1640066.49389543,01:15
7898,204052393.575737,50926920.4718345,16:30,51171129.2303659,46:60
7918,204052393.575737,50926920.4718345,16:30,51171129.2303659,46:60
7943,0.0,0.0,01:15,0.0,01:15
7965,958511.328523456,238814.346310274,16:30,241138.665305627,46:60
2,2, 3,14, 1, 7, 0.00,60.00,Tuesday        
347,133491102.288156,31570511.0116952,46:60,35174678.8473702,01:15
357,118788184.335936,29697046.083984,01:15,29697046.083984,01:15
377,32388220.1953141,8097055.04882853,01:15,8097055.04882853,01:15
897,86399964.1406218,21599991.0351554,01:15,21599991.0351554,01:15
7261,0.0,0.0,01:15,0.0,01:15
7382,133491102.288156,31570511.0116952,46:60,35174678.8473702,01:15
7827,6560265.97558172,1640066.49389543,01:15,1640066.49389543,46:60
7837,6560265.97558172,1640066.49389543,01:15,1640066.49389543,46:60
7898,202737771.960973,50271503.2997991,46:60,51034530.052059,01:15
7918,202737771.960973,50271503.2997991,46:60,51034530.052059,01:15
7943,0.0,0.0,01:15,0.0,01:15
7965,947150.896638817,233398.433815793,46:60,239815.729490789,01:15
2,2, 3,14, 1, 8, 0.00,60.00,Tuesday        
347,298885487.905734,74703177.9433702,46:60,74746726.1842611,01:15
357,291564579.902341,72891144.9755853,01:15,72891144.9755853,01:15
377,97164660.5859424,24291165.1464856,01:15,24291165.1464856,01:15
897,194399919.316399,48599979.8290997,01:15,48599979.8290997,01:15
7261,0.0,0.0,01:15,0.0,01:15
7382,298885487.905734,74703177.9433702,46:60,74746726.1842611,01:15
7827,6560265.97558172,1640066.49389543,01:15,1640066.49389543,01:15
7837,6560265.97558172,1640066.49389543,01:15,1640066.49389543,01:15
7898,177587207.942294,41495053.8725423,46:60,47833220.884952,01:15
7918,177587207.942294,41495053.8725423,46:60,47833220.884952,01:15
7943,0.0,0.0,01:15,0.0,01:15
7965,760642.02781117,171966.473889463,46:60,215514.714780343,01:15
2,2, 3,14, 1, 9, 0.00,60.00,Tuesday        
347,298654677.56488,74652518.7805403,46:60,74677958.7217012,01:15
357,291564579.902341,72891144.9755853,01:15,72891144.9755853,01:15
377,97164660.5859424,24291165.1464856,01:15,24291165.1464856,01:15
897,194399919.316399,48599979.8290997,01:15,48599979.8290997,01:15
7261,0.0,0.0,01:15,0.0,01:15
7382,298654677.56488,74652518.7805403,46:60,74677958.7217012,01:15
7827,6560265.97558172,1640066.49389543,01:15,1640066.49389543,01:15
7837,6560265.97558172,1640066.49389543,01:15,1640066.49389543,01:15
7898,137130109.75255,31542282.9995287,46:60,38205694.0442534,01:15
7918,137130109.75255,31542282.9995287,46:60,38205694.0442534,01:15
7943,0.0,0.0,01:15,0.0,01:15
7965,529831.686956645,121307.311059514,46:60,146747.252220447,01:15
2,2, 3,14, 1,10, 0.00,60.00,Tuesday        
347,298570238.914213,74640296.1974188,46:60,74645349.9434102,01:15
357,291564579.902341,72891144.9755853,01:15,72891144.9755853,01:15
377,97164660.5859424,24291165.1464856,01:15,24291165.1464856,01:15
897,194399919.316399,48599979.8290997,01:15,48599979.8290997,01:15
7261,0.0,0.0,01:15,0.0,01:15
7382,298570238.914213,74640296.1974188,46:60,74645349.9434102,01:15
7827,6560265.97558172,1640066.49389543,01:15,1640066.49389543,46:60
7837,6560265.97558172,1640066.49389543,01:15,1640066.49389543,46:60
7898,112956316.388298,26818310.9673915,46:60,29963411.9767037,01:15
7918,112956316.388298,26818310.9673915,46:60,29963411.9767037,01:15
7943,0.0,0.0,01:15,0.0,01:15
7965,445393.036289992,109084.727938049,46:60,114138.473929476,01:15
2,2, 3,14, 1,11, 0.00,60.00,Tuesday        
347,298480178.450203,74612984.5880266,46:60,74629954.8609942,01:15
357,291564579.902341,72891144.9755853,01:15,72891144.9755853,01:15
377,97164660.5859424,24291165.1464856,01:15,24291165.1464856,01:15
897,194399919.316399,48599979.8290997,01:15,48599979.8290997,01:15
7261,0.0,0.0,01:15,0.0,01:15
7382,298480178.450203,74612984.5880266,46:60,74629954.8609942,01:15
7827,6560265.97558172,1640066.49389543,31:45,1640066.49389543,01:15
7837,6560265.97558172,1640066.49389543,31:45,1640066.49389543,01:15
7898,91593337.3376092,20464002.7662331,46:60,25382988.5470739,01:15
7918,91593337.3376092,20464002.7662331,46:60,25382988.5470739,01:15
7943,0.0,0.0,01:15,0.0,01:15
7965,355332.572280065,81773.118545817,46:60,98743.3915134857,01:15
2,2, 3,14, 1,12, 0.00,60.00,Tuesday        